  0.00000000000000000E+00  0.00000000000000000E+00  0.00000000000000000E+00
  0.00000000000000000E+00  0.00000000000000000E+00  0.00000000000000000E+00
  0.00000000000000000E+00  0.00000000000000000E+00  0.00000000000000000E+00
  0.48535018054055598E+02  0.23098241523044957E-01  0.27174552046813714E-01
  0.48535018054055598E+02  0.23098241527148258E-01  0.27174552048309094E-01
  0.48535018054079643E+02  0.22937394210877201E-01  0.27115940840421456E-01
  0.38324487420272755E+01  0.41109636105148706E-03  0.46251362192033078E-03
  0.38324493871154708E+01  0.47282382426861043E-03  0.53266444915498899E-03
  0.82580303336754213E+01  0.24026323961401090E-02  0.26393671589140144E-02
  0.48293530820623957E+02  0.32931740135712588E-01  0.41342304943134810E-01
  0.48293530871837937E+02  0.31897880897620245E-01  0.40298914618247736E-01
  0.51941099849072259E+02  0.61637464997471641E-02  0.52425166809016233E-02
  0.69989750982011438E+01  0.16030954255650126E-02  0.16995408457924079E-02
  0.69989754782316353E+01  0.16276331198436761E-02  0.17250898598096867E-02
  0.16168688269578631E+02  0.14820243657164474E-01  0.12480030502696820E-01
  0.47700948856589676E+02  0.36904875310022539E-01  0.48928672517812695E-01
  0.47700948912371828E+02  0.37324888902515375E-01  0.49641020972472832E-01
  0.52323487373047222E+02  0.10131796312655914E-01  0.85049093165596012E-02
  0.91147157948533621E+01  0.36480830199475227E-02  0.35890735173497888E-02
  0.91147164328113544E+01  0.35710539162513827E-02  0.35171975423020688E-02
  0.23522228155467726E+02  0.15524219979193366E-02  0.18337204485992171E-02
  0.47115154526721810E+02  0.25513971450040508E-01  0.29445385647555427E-01
  0.47115154650116679E+02  0.25711784725995408E-01  0.29277813404669194E-01
  0.51291613371283511E+02  0.42834315990454494E-02  0.37612028427213037E-02
  0.10274990032262894E+02  0.75221608444116144E-02  0.70211229691691246E-02
  0.10274990940559867E+02  0.69263590981237426E-02  0.64656421649655349E-02
  0.30130269146926175E+02  0.41971474450549842E-02  0.52026910350554852E-02
  0.46874499111284550E+02  0.46105283260621306E-01  0.50975055513667752E-01
  0.46874499310363070E+02  0.45786372665412689E-01  0.50647743666724497E-01
  0.48648901231483933E+02  0.18541055749817157E-01  0.22183486434984225E-01
  0.10866886786904871E+02  0.11123631419883009E-01  0.10199937903096749E-01
  0.10866887082858101E+02  0.11826103936251010E-01  0.10846717588875867E-01
  0.35663160436804340E+02  0.34965419618511761E-02  0.74288524464008136E-02
  0.45240844695612665E+02  0.45938571246829513E-01  0.47250225074849876E-01
  0.46955035744746780E+02  0.38010813821473435E-01  0.42693693682981551E-01
  0.46955035813261844E+02  0.36071658180218444E-01  0.40782125525763595E-01
  0.11071057503795025E+02  0.16973387487051798E-01  0.15615490558344046E-01
  0.11071058676296939E+02  0.16809002250489386E-01  0.15459333066602569E-01
  0.38860602648041450E+02  0.81015122498759584E-02  0.10997912607025605E-01
  0.42728620557214342E+02  0.17524379575881960E-01  0.84640194543906359E-02
  0.47041787648880010E+02  0.33213652688755022E-01  0.37740662727908221E-01
  0.47041787924844733E+02  0.33377885797890486E-01  0.38252176338444771E-01
  0.54742587906377231E+01  0.69117419555286927E-03  0.76059974606384952E-03
  0.54742596315592156E+01  0.70205353948368332E-03  0.77294432719986087E-03
  0.81910958308979396E+01  0.23351863796793612E-02  0.25949128099916740E-02
  0.48144907262343963E+02  0.44427794262796416E-01  0.57751740961477255E-01
  0.48144907357976081E+02  0.42873984186440194E-01  0.56897524896772612E-01
  0.52138460820021820E+02  0.11495405214660104E-01  0.96650875242502675E-02
  0.78135582927234841E+01  0.21935068501742097E-02  0.23011526532067499E-02
  0.79870015467451072E+01  0.22811522833688603E-02  0.23483189313311444E-02
  0.14302415359294184E+02  0.31411316610083222E-01  0.27545047534169913E-01
  0.47538771504406157E+02  0.28385502432363263E-01  0.34688398401094465E-01
  0.47726230372390994E+02  0.39019818517117007E-01  0.52792416741044290E-01
  0.52401176670264832E+02  0.84016195693511920E-02  0.69810296697310767E-02
  0.98175626539456502E+01  0.48640651988572795E-02  0.45733991060717865E-02
  0.10178389188566664E+02  0.68459733438182282E-02  0.65851146852072334E-02
  0.21124192175035965E+02  0.46276891572596523E-02  0.38049620584697593E-02
  0.46862594130226441E+02  0.44621322205527530E-01  0.49580292106639515E-01
  0.47294796814066956E+02  0.26026956659827155E-01  0.30328782046538747E-01
  0.51550258091386901E+02  0.51105858652455202E-02  0.44729279717581165E-02
  0.10871453935243743E+02  0.11489056465791554E-01  0.10224316005771219E-01
  0.11820145649004816E+02  0.14456507092638692E-01  0.12812458905281494E-01
  0.27534117611207101E+02  0.28013066256944836E-02  0.32872005748791305E-02
  0.46584110470124678E+02  0.38285477005720304E-01  0.43774542483153045E-01
  0.46793172873016310E+02  0.37425231929445898E-01  0.39179637086318858E-01
  0.49395169635011086E+02  0.71339397599211466E-02  0.80547449189842663E-02
  0.11475638133051254E+02  0.12896273581074983E-01  0.11290983558373512E-01
  0.12691506924801498E+02  0.19187984273883248E-01  0.16029614569562374E-01
  0.33146357773584597E+02  0.77041915776764449E-02  0.10536483660268754E-01
  0.45356030385928705E+02  0.90496466297461914E-01  0.92847486081517161E-01
  0.46696104074027552E+02  0.38070892566197855E-01  0.43397610969748181E-01
  0.47579855212068487E+02  0.26862205949044621E-01  0.39769263660103728E-01
  0.11759091855326261E+02  0.14241676256267906E-01  0.12477202028276704E-01
  0.13063196473130175E+02  0.20838528693114162E-01  0.17026609391373765E-01
  0.37149236590493125E+02  0.20099819963423061E-02  0.50376535981392755E-02
  0.42748253941092834E+02  0.15381746416774608E-01  0.87113871715305685E-02
  0.46806407863055526E+02  0.35489254717549865E-01  0.40299162184976062E-01
  0.47382687451449478E+02  0.25790280789295596E-01  0.35220334896768464E-01
  0.11643874506840293E+02  0.13793310624998988E-01  0.12170355130493535E-01
  0.13019926711264304E+02  0.20925277254532748E-01  0.17034495522004429E-01
  0.36156732547294517E+02  0.28196864493266189E-02  0.71419521819240531E-02
  0.43384270863629418E+02  0.11730364605192256E-01  0.76041707727378819E-02
  0.46735062891975367E+02  0.37620771084954707E-01  0.42395536434875113E-01
  0.47491790850054393E+02  0.26227900938437559E-01  0.37067780568424698E-01
  0.11134431471780468E+02  0.10767239266908939E-01  0.97198205902761549E-02
  0.12641302174893594E+02  0.18889538843876657E-01  0.15508320496204785E-01
  0.31412178374711743E+02  0.53299063783288810E-02  0.66849058077987807E-02
  0.45756787167665408E+02  0.45985661393010122E-01  0.46960846503985819E-01
  0.46688848677188986E+02  0.38572458741419131E-01  0.43021497383956900E-01
  0.48107160082757495E+02  0.42456020166104912E-01  0.67609597741679239E-01
  0.10088791140048251E+02  0.61014682259247560E-02  0.58219964262301270E-02
  0.11953424108780004E+02  0.14691285985410094E-01  0.12605858925403536E-01
  0.25421850472897408E+02  0.20729356565138439E-02  0.24055923287294601E-02
  0.46753470339281087E+02  0.38440232971045908E-01  0.41177487715258296E-01
  0.46921305171877272E+02  0.37878983679017972E-01  0.41659534165844524E-01
  0.50089454803682749E+02  0.52041431207265195E-02  0.51297582237784358E-02
  0.81550315925130885E+01  0.23720663100321444E-02  0.24593529403148938E-02
  0.10581468457514926E+02  0.74409809054220713E-02  0.69599336587890318E-02
  0.18830424380988124E+02  0.11135739917963615E-01  0.90042796340735060E-02
  0.47414535473884577E+02  0.28138744859543988E-01  0.33469985509382807E-01
  0.47429217598610009E+02  0.28435122832955403E-01  0.33132930149092285E-01
  0.51714608199776215E+02  0.56775568502537010E-02  0.49688319938917605E-02
  0.54809716941641256E+01  0.69280496509501301E-03  0.76245482200392194E-03
  0.78965779855937903E+01  0.22301173864615240E-02  0.23423259206367211E-02
  0.12436554751104886E+02  0.15432119633748416E-01  0.15158527955682337E-01
  0.47976741846102186E+02  0.69054443655290773E-01  0.97148417867818929E-01
  0.47980622139855690E+02  0.71226388062324286E-01  0.97496374986794879E-01
  0.52162901018248320E+02  0.15460572964231187E-01  0.13109915276472161E-01
  0.98279070857552977E+01  0.49072366039608888E-02  0.46000580180599205E-02
  0.98279088372404022E+01  0.49343771022552453E-02  0.46224356530093031E-02
  0.16189422902010492E+02  0.14353821989165358E-01  0.12471388175970675E-01
  0.46919363714692274E+02  0.37539154324458431E-01  0.42232797209042487E-01
  0.46919364081581584E+02  0.37592617135108676E-01  0.42364360143069525E-01
  0.52776881749103076E+02  0.58997059138437133E-02  0.46687713270177388E-02
  0.11242132235326554E+02  0.11440183853917254E-01  0.96873905201447855E-02
  0.11935391035284542E+02  0.14849531217305810E-01  0.12445777699810019E-01
  0.20750381522546668E+02  0.13896553991980339E-01  0.10801734377436322E-01
  0.46222979003117040E+02  0.35548411196913945E-01  0.43511099360455024E-01
  0.46439535965182124E+02  0.39070084259178801E-01  0.45792528418421373E-01
  0.52037064041203053E+02  0.59350126459236409E-02  0.49010321451758120E-02
  0.12093724520606681E+02  0.15539144549305316E-01  0.12370856792472617E-01
  0.14389102849050609E+02  0.40925061773123925E-01  0.28165452301688400E-01
  0.25503147305251581E+02  0.20633795359799667E-02  0.24894180303057347E-02
  0.45958397300893843E+02  0.43954578931228241E-01  0.56215999139409202E-01
  0.46138636739901280E+02  0.38660425126459536E-01  0.45068534068727399E-01
  0.50033262119470329E+02  0.52336745968436975E-02  0.51353219361861381E-02
  0.12675450552916729E+02  0.19624052553375182E-01  0.15343052223285646E-01
  0.16174890010253890E+02  0.16811914238059146E-01  0.10859097153939890E-01
  0.30037190802420263E+02  0.41419466677283428E-02  0.51588357447511996E-02
  0.44903775856564003E+02  0.13749339050294525E-01  0.12089315798412730E-01
  0.46115493200934445E+02  0.38571704984076520E-01  0.48865491075791176E-01
  0.48300888585750215E+02  0.27588720587551657E-01  0.45757142941807723E-01
  0.13021848395522738E+02  0.21113931292391853E-01  0.16507170789530175E-01
  0.16999387247108022E+02  0.15746613635899128E-01  0.95872894501276805E-02
  0.33823650332038859E+02  0.12256901314557105E-01  0.17567090988082935E-01
  0.42560361338113324E+02  0.11209769008106078E-01  0.69326733794927388E-02
  0.46238407385015712E+02  0.35140385975008882E-01  0.43514578632247468E-01
  0.47913781550918088E+02  0.46863584921903588E-01  0.90682847219533097E-01
  0.12985938601420527E+02  0.21017784911217065E-01  0.16570648850501350E-01
  0.17096780928957688E+02  0.15732879164721370E-01  0.94652895694363973E-02
  0.34718168946357238E+02  0.58201729191105162E-02  0.94592546792257662E-02
  0.41587441858812710E+02  0.13319009539442473E-01  0.81102238979429957E-02
  0.46143994032122372E+02  0.37715988732272811E-01  0.46699240874153877E-01
  0.48079262675264374E+02  0.43924115745357720E-01  0.82132905877963402E-01
  0.12595324678545076E+02  0.18573584485978983E-01  0.15114659145695129E-01
  0.16789613894288799E+02  0.15978598665948477E-01  0.95807038987207171E-02
  0.31465624440976118E+02  0.55177016997525067E-02  0.66525130563446326E-02
  0.43135630189629161E+02  0.11466223388432929E-01  0.85638853514330843E-02
  0.46109586471749743E+02  0.39619201388552301E-01  0.48398329586495974E-01
  0.48506681895644839E+02  0.18221975509596471E-01  0.31019454532305746E-01
  0.11789090140400523E+02  0.14329836455315470E-01  0.12522825563144690E-01
  0.16238521777593352E+02  0.16648287561897176E-01  0.10441850125150528E-01
  0.26657421284402094E+02  0.25261195677715904E-02  0.29023242339855202E-02
  0.45108290216034732E+02  0.18480434302671319E-01  0.19590771735780541E-01
  0.46392183384612444E+02  0.38124585562833407E-01  0.43810442826115077E-01
  0.49224866978444943E+02  0.77557296057028874E-02  0.10886080841059706E-01
  0.10241660695658410E+02  0.68855279724863343E-02  0.65732448821901913E-02
  0.14507078039720733E+02  0.23119730414606746E-01  0.16436022928322105E-01
  0.22061645231755236E+02  0.12798542023262293E-02  0.14872566272292290E-02
  0.46774738100829900E+02  0.38013187131843082E-01  0.39932633933491349E-01
  0.46916284394836097E+02  0.38527557117330413E-01  0.42137509836505278E-01
  0.50305760797671986E+02  0.51490330190274540E-02  0.53349063884874917E-02
  0.12314726426021288E+02  0.16906509471428376E-01  0.12785846328257950E-01
  0.12314727152732091E+02  0.16508077379814825E-01  0.12472952067430631E-01
  0.23790232727874649E+02  0.15372438441093252E-02  0.19627759987506572E-02
  0.45566193005984545E+02  0.67078673927496779E-01  0.94850874142227481E-01
  0.45566193202402580E+02  0.67008487729344188E-01  0.94780853606071858E-01
  0.51913922016789954E+02  0.66067109191632117E-02  0.52152969510025479E-02
  0.12968300280031050E+02  0.22062588092640896E-01  0.15620648192139576E-01
  0.14045320527656470E+02  0.32985520583198216E-01  0.21153021952172019E-01
  0.27255534895847081E+02  0.25095051681336493E-02  0.33675786835883235E-02
  0.45350339588486122E+02  0.73286041475103078E-01  0.11072641805174108E+00
  0.45355390291086543E+02  0.75541477382074493E-01  0.11089817281106767E+00
  0.50367863074219571E+02  0.57164055417047461E-02  0.48753714016311457E-02
  0.13498982970058446E+02  0.25225041888417742E-01  0.17332546030939280E-01
  0.16896685938516736E+02  0.16734670376514025E-01  0.89636915994097711E-02
  0.30001271941608888E+02  0.37674418168734845E-02  0.55493554144417237E-02
  0.44770723645725703E+02  0.12176703722569467E-01  0.11547339281326282E-01
  0.45544709414995829E+02  0.73701236746456497E-01  0.10801730686012886E+00
  0.48460264366959692E+02  0.19468647587572736E-01  0.28326682605115349E-01
  0.13859604736626277E+02  0.32035811963712454E-01  0.21826411049997670E-01
  0.19237278243811854E+02  0.14347430347618444E-01  0.71075860009041847E-02
  0.32351421196323990E+02  0.57889072602117231E-02  0.95284215285259943E-02
  0.42548978541513726E+02  0.11573356313530013E-01  0.66147773137373283E-02
  0.45674728909944186E+02  0.47229213304340552E-01  0.66005922807097300E-01
  0.47963025459448176E+02  0.53479109116973997E-01  0.11207906923698856E+00
  0.13857142388967874E+02  0.31909819614825051E-01  0.21882132722965613E-01
  0.20102731247590814E+02  0.17940789298464991E-01  0.82976039223341021E-02
  0.33836557569716071E+02  0.11238473046798496E-01  0.18724646935628923E-01
  0.40419456295243045E+02  0.10315552711355765E-01  0.55456531673042644E-02
  0.45541621028745311E+02  0.75533633659527588E-01  0.10817075841192916E+00
  0.48207054890669575E+02  0.32007053921184046E-01  0.64903002806680127E-01
  0.13560481211509854E+02  0.25661400923665638E-01  0.18302527069091364E-01
  0.19881229167426493E+02  0.17438442960925869E-01  0.80475965406201361E-02
  0.32073862556365498E+02  0.61557981152762396E-02  0.81713205468289373E-02
  0.40879624881332205E+02  0.11871607172389134E-01  0.78454679870351620E-02
  0.45473317990126155E+02  0.82462089138654771E-01  0.11774196949738648E+00
  0.48600630997966547E+02  0.15646129445663584E-01  0.29807094684260859E-01
  0.12983715828954780E+02  0.21103776919179834E-01  0.16492422025691636E-01
  0.18971836939805751E+02  0.13759726007552854E-01  0.70676583256529014E-02
  0.28762466423338942E+02  0.34326787783402805E-02  0.41152194475366334E-02
  0.42748298799928847E+02  0.13514945551942404E-01  0.10024312297940621E-01
  0.45791939393112074E+02  0.40447126947831091E-01  0.51285724944235396E-01
  0.48978373237939742E+02  0.94087586236581960E-02  0.15465505061045369E-01
  0.13467297243751565E+02  0.25479239935430123E-01  0.16596743562838284E-01
  0.13467298450522970E+02  0.25353738721586933E-01  0.16564501079378617E-01
  0.30681251044990415E+02  0.40603628115991348E-02  0.62019211946931774E-02
  0.45138279707827422E+02  0.23274520019720510E-01  0.34761680782650822E-01
  0.45138280067858275E+02  0.22338687192225756E-01  0.33775678814084824E-01
  0.49530251562532229E+02  0.68214604844972545E-02  0.56123196814446353E-02
  0.13896400939617326E+02  0.33415096517351764E-01  0.21218985451603115E-01
  0.15002775802752616E+02  0.24345376426892100E-01  0.14121656444588404E-01
  0.33280724402674167E+02  0.68756958337467880E-02  0.13022488250262103E-01
  0.45031014241933335E+02  0.12567522887761489E-01  0.13857963944650022E-01
  0.45300757691101815E+02  0.60129100028894517E-01  0.94861287264480842E-01
  0.47771157572543814E+02  0.46099597133670220E-01  0.54901720371176146E-01
  0.14206006563580514E+02  0.40942002531140477E-01  0.25646093031354719E-01
  0.17841375981122006E+02  0.15621335408774386E-01  0.77573667601725342E-02
  0.34740691135005754E+02  0.41480663416935690E-02  0.11769209164534873E-01
  0.43015864096464398E+02  0.14407125685890386E-01  0.65701629714978952E-02
  0.45420073536942709E+02  0.87954023288854516E-01  0.13742410366534874E+00
  0.47271478956675409E+02  0.21342243913223789E-01  0.34712976520991826E-01
  0.14210017313202151E+02  0.40819318331492577E-01  0.25680665914972062E-01
  0.20186293823012850E+02  0.18690186422929592E-01  0.78462306138148141E-02
  0.35643190251155268E+02  0.22205214452058553E-02  0.10232552841808197E-01
  0.39882734569809159E+02  0.10121641183330206E-01  0.30020349028486927E-02
  0.45280968849792941E+02  0.54687653947096196E-01  0.84550610511608476E-01
  0.47791223887788867E+02  0.34576805925638464E-01  0.75720458141396552E-01
  0.13984797399401502E+02  0.32720090729383290E-01  0.21433053196047588E-01
  0.20879765519617479E+02  0.21233968331191958E-01  0.82508068292235955E-02
  0.34511841927126625E+02  0.52536265579435689E-02  0.11842414404649712E-01
  0.39134564508569895E+02  0.92517377755540857E-02  0.48479382881973249E-02
  0.45177730758903209E+02  0.27032423053424310E-01  0.39225277949878075E-01
  0.48308175511683736E+02  0.23724250641047637E-01  0.48911075340798131E-01
  0.14177947299610391E+02  0.41687418546780049E-01  0.25546165383297795E-01
  0.14177948417950745E+02  0.40667364401541721E-01  0.24933438313428008E-01
  0.36472826475779776E+02  0.18412164735104263E-02  0.85650318838812467E-02
  0.45386937331703244E+02  0.78311163064424774E-01  0.12482353618027756E+00
  0.45386937681032677E+02  0.78614778225172766E-01  0.12525907585136078E+00
  0.46179452937403937E+02  0.50137140030778952E-01  0.29173083301736253E-01
  0.14375074760437728E+02  0.43901834984646872E-01  0.26655096680735541E-01
  0.15493398178170859E+02  0.22526986643036564E-01  0.12876385045351865E-01
  0.38205559201117843E+02  0.23457738029864636E-02  0.68387127829859463E-02
  0.43481813298653790E+02  0.16269064478670589E-01  0.38013894063139314E-02
  0.45477694863350131E+02  0.78059447584049729E-01  0.12257555147097673E+00
  0.46120717902889275E+02  0.35101330314300044E-01  0.51157357280271612E-01
  0.14371863447722724E+02  0.43998090750986624E-01  0.26797417467981699E-01
  0.18074728855073293E+02  0.15215389750652109E-01  0.75075817799792870E-02
  0.38070421163412888E+02  0.24915765299410525E-03  0.82220188809873068E-02
  0.40732612386564682E+02  0.21708922860055074E-01  0.44483658247110807E-03
  0.45369509358805132E+02  0.74462109543769833E-01  0.11746947685797615E+00
  0.46975722513097757E+02  0.28806512883407038E-01  0.47132561321601325E-01
  0.14446146462356879E+02  0.35437697020570549E-01  0.21607888685959111E-01
  0.14446147122887096E+02  0.35883589604918123E-01  0.21858708396123059E-01
  0.40093010048068152E+02  0.22920062651499469E-15  0.19522598924528230E-01
  0.43276230664577248E+02  0.32178222060254953E-01  0.26531223264921113E-15
  0.45558795786956786E+02  0.66759521321279283E-01  0.10310614697187938E+00
  0.45558795996385925E+02  0.66784784490000818E-01  0.10309952683486140E+00
  0.93388936579896207E+01  0.38553305016522489E-02  0.37717310722404692E-02
  0.11457362508687785E+02  0.12800934529749416E-01  0.11334716315895166E-01
  0.18257801782049388E+02  0.11921767890291838E-01  0.97850983581617250E-02
  0.46979531748255617E+02  0.34881741557260156E-01  0.39078780991617774E-01
  0.47216485941488401E+02  0.24766856977644663E-01  0.29264118651367639E-01
  0.51946416494812908E+02  0.64403420259875411E-02  0.55312195599661329E-02
  0.11094212035236570E+02  0.14636752920978423E-01  0.13183402929245877E-01
  0.13725423199728381E+02  0.28126252449190755E-01  0.20863800355921502E-01
  0.23343496595433187E+02  0.15433592240455913E-02  0.18130774688261625E-02
  0.46243267656813522E+02  0.36013638274402057E-01  0.42143523787011666E-01
  0.46887271881994508E+02  0.44784786849867343E-01  0.48677244914415239E-01
  0.50399111527654853E+02  0.52507089116271381E-02  0.52991210587294731E-02
  0.12161108760499635E+02  0.15133457288161107E-01  0.12598706430132689E-01
  0.14988562242347991E+02  0.23548483362523322E-01  0.16040703823203249E-01
  0.28647107169544128E+02  0.33967750688976331E-02  0.39705852115719097E-02
  0.45267416477090087E+02  0.58012376117847361E-01  0.67317615142691731E-01
  0.46483889940916853E+02  0.40064487280295547E-01  0.44147657112959184E-01
  0.48708953540253958E+02  0.13890147750140280E-01  0.21600695616180388E-01
  0.12714077329034055E+02  0.19723038189327351E-01  0.15887641757924540E-01
  0.15665771173564398E+02  0.19985767983241462E-01  0.13412189185711033E-01
  0.33299955202097564E+02  0.83213953588618019E-02  0.11228777771555358E-01
  0.43276364716220520E+02  0.17382013712021232E-01  0.81104211297722516E-02
  0.46399756965883910E+02  0.38676540969125067E-01  0.44828307365892835E-01
  0.47949825639064322E+02  0.55029055240378974E-01  0.10499144949583866E+00
  0.12909248165612009E+02  0.21003097663690750E-01  0.16785028715275839E-01
  0.15898353256735673E+02  0.17976073585960109E-01  0.12082396956101353E-01
  0.35646997917773035E+02  0.36429510374037972E-02  0.74155574106452129E-02
  0.41797464170447746E+02  0.13021462985911010E-01  0.75623075981867145E-02
  0.46436138760705319E+02  0.38947216426319903E-01  0.45293044421808801E-01
  0.47794367776940632E+02  0.39017199224911307E-01  0.72417993123069152E-01
  0.12565613890580916E+02  0.18656498702052562E-01  0.14454868546185440E-01
  0.13792857705964765E+02  0.30918136447914794E-01  0.21186972061597580E-01
  0.24203252334576099E+02  0.16043701758746587E-02  0.20075396751489520E-02
  0.45543355919229185E+02  0.76309901538513428E-01  0.10572044786208970E+00
  0.46143577127543928E+02  0.37295857050656016E-01  0.46504727634489568E-01
  0.50834967643190836E+02  0.43675395269304985E-02  0.38963273122905730E-02
  0.13533692948501260E+02  0.25573617075817706E-01  0.17982795254207370E-01
  0.16151624169952179E+02  0.17409543098714526E-01  0.10449398401228750E-01
  0.27633264804823000E+02  0.26925845153401126E-02  0.34733058986800812E-02
  0.44840721145461458E+02  0.12382129083736534E-01  0.13017610567161631E-01
  0.46089087037073391E+02  0.40941773909097354E-01  0.49007894539198044E-01
  0.48997773959682583E+02  0.10333358586494834E-01  0.14091298145711152E-01
  0.14053097451798140E+02  0.32286930281732566E-01  0.21807044802138974E-01
  0.18125124028862707E+02  0.14434626473107417E-01  0.80871580926225282E-02
  0.30960615542288867E+02  0.45594760592262530E-02  0.62536441393278470E-02
  0.43176854669407369E+02  0.12648457808410032E-01  0.82296712179293543E-02
  0.45975771617830119E+02  0.44890867032729605E-01  0.55788227710281739E-01
  0.48097279159364120E+02  0.38609633749421592E-01  0.77115733397721611E-01
  0.14271386934753524E+02  0.36633140503367356E-01  0.24422359732628865E-01
  0.18998046927079745E+02  0.13332472246463330E-01  0.73868194309659688E-02
  0.33549690510560161E+02  0.97334536131786446E-02  0.14611152856717022E-01
  0.41106284801607956E+02  0.13429316070800921E-01  0.76373812983002590E-02
  0.45905576091664948E+02  0.43548836846511445E-01  0.55449629125458817E-01
  0.48024099284628555E+02  0.55213181909827408E-01  0.11875700820390780E+00
  0.14130738966177661E+02  0.35607192848205953E-01  0.24078052532968620E-01
  0.18917525531920290E+02  0.13362966776284882E-01  0.73693813808989464E-02
  0.32941580834490075E+02  0.72623795646847454E-02  0.98243467056695084E-02
  0.41156011100017317E+02  0.12897114617621490E-01  0.79666443437194732E-02
  0.45826056922695130E+02  0.40622795842939485E-01  0.51998752684329776E-01
  0.48225840585322970E+02  0.30512595738120908E-01  0.62219756503621049E-01
  0.13656679337124489E+02  0.27091541044358167E-01  0.19541857569481038E-01
  0.18223832041667986E+02  0.14402797077872899E-01  0.79140202947560918E-02
  0.29560859607392334E+02  0.39468454574979840E-02  0.48315276281779207E-02
  0.42959129369024190E+02  0.11317569822943548E-01  0.85804857614001657E-02
  0.45954697095499412E+02  0.45203261560232633E-01  0.55158489245744229E-01
  0.48609809975947975E+02  0.15637315329593920E-01  0.29101919786759637E-01
  0.12677722295014163E+02  0.19330414543144686E-01  0.15639964560844516E-01
  0.16739427097218510E+02  0.16231715703148970E-01  0.93947771824495971E-02
  0.25962410113700969E+02  0.22393828842026810E-02  0.26790536555646315E-02
  0.44851405767751629E+02  0.12361627951139804E-01  0.12772815220045896E-01
  0.46419091113119713E+02  0.39479130863969383E-01  0.43397668300335680E-01
  0.49234632169593411E+02  0.76821396345875268E-02  0.10818837561031969E-01
  0.14264218755774143E+02  0.38624278937974099E-01  0.23590240141082203E-01
  0.14883148037090411E+02  0.24375776253443268E-01  0.14715434006403480E-01
  0.30119043143792510E+02  0.37757335134466171E-02  0.56493639889554732E-02
  0.44838278107447366E+02  0.11892854416563403E-01  0.13463992788327821E-01
  0.45567752098007105E+02  0.66396849645311756E-01  0.93879808281317617E-01
  0.48806343689469209E+02  0.12922857166681182E-01  0.15051681201436382E-01
  0.14875368988380963E+02  0.24674286095542237E-01  0.14785729206532120E-01
  0.17513999179463891E+02  0.15971016900057877E-01  0.83098319664504407E-02
  0.32168249404362072E+02  0.53897178089965430E-02  0.94747664296774611E-02
  0.43527073875976996E+02  0.11826911091942541E-01  0.70926239651645578E-02
  0.45623495676910018E+02  0.53536797990661474E-01  0.72958367714849634E-01
  0.47692717470868217E+02  0.29643580970289230E-01  0.56900793703400593E-01
  0.15087256672325204E+02  0.24843525594904992E-01  0.14869780661781398E-01
  0.19908903077106405E+02  0.17607319339911175E-01  0.80329910506132720E-02
  0.33770786547999442E+02  0.98951866390506547E-02  0.20716036505145197E-01
  0.40849841579280294E+02  0.14215038235083433E-01  0.63119214269715266E-02
  0.45506246507441972E+02  0.80324222133942511E-01  0.11674969926970279E+00
  0.47802285882422296E+02  0.34796893421654443E-01  0.79482319024603565E-01
  0.14973024431945754E+02  0.24783814162891073E-01  0.15017020041292514E-01
  0.20697237470384785E+02  0.18891062354399968E-01  0.82900954795083817E-02
  0.34081622368829237E+02  0.74171294814205655E-02  0.14576588744731203E-01
  0.39346271653778039E+02  0.92640504902924484E-02  0.48592005808434872E-02
  0.45366768681583984E+02  0.76572257363842197E-01  0.11369566792683525E+00
  0.48142148466029553E+02  0.32832834254742191E-01  0.72938536656473887E-01
  0.14557923830727727E+02  0.23231312926548058E-01  0.14954715131437826E-01
  0.20072359109427033E+02  0.18032122007001647E-01  0.82142583428858173E-02
  0.31678670930679726E+02  0.54347445575624416E-02  0.75564699676386625E-02
  0.40795841395764953E+02  0.11851764933872307E-01  0.73969700181390650E-02
  0.45482900944889998E+02  0.82336296782827376E-01  0.11727530956959502E+00
  0.48436409377794931E+02  0.16659902857991533E-01  0.33719048096560629E-01
  0.15074689612961487E+02  0.25003915300934314E-01  0.14147894392096686E-01
  0.15560004873193410E+02  0.21974021263962275E-01  0.12971486855724959E-01
  0.35451104573694366E+02  0.29004186948315535E-02  0.93455865939960671E-02
  0.43987318149977192E+02  0.97103478933512656E-02  0.50051360934141370E-02
  0.45507415149699604E+02  0.80959572313110684E-01  0.11566740834824867E+00
  0.46767800844726253E+02  0.33070427421339074E-01  0.45897137859654241E-01
  0.15401924064785103E+02  0.23890583649351777E-01  0.13622761926039714E-01
  0.18133674921006975E+02  0.14901188238418047E-01  0.76111321589689305E-02
  0.36462360670513647E+02  0.13160873472739586E-02  0.98667640167399116E-02
  0.41130005712432542E+02  0.18619670200707008E-01  0.42212382867991526E-02
  0.45436624939635855E+02  0.87858118278941855E-01  0.13153164763644026E+00
  0.47118192337875414E+02  0.19625410243467860E-01  0.36048935406433828E-01
  0.15333078974657203E+02  0.24336616659480791E-01  0.14036784143654437E-01
  0.20359704293088953E+02  0.18902477318396210E-01  0.81595612326741535E-02
  0.36388092525926879E+02  0.64595399337414553E-03  0.11683778971356997E-01
  0.38553786529508358E+02  0.12264810633518827E-01  0.12543115016897279E-02
  0.45280223298167591E+02  0.54927888897697605E-01  0.83693048737216613E-01
  0.47735879888372935E+02  0.29745660745299458E-01  0.68600207900127802E-01
  0.15289424093157878E+02  0.24365699429734950E-01  0.13762720712952909E-01
  0.15842993838755591E+02  0.19701385421089044E-01  0.11492815464892382E-01
  0.38863618601438354E+02  0.59278922559838202E-03  0.17592419570436505E-01
  0.41863623627145891E+02  0.22055143505109842E-01  0.39925277672754188E-03
  0.45542148359970213E+02  0.75458649279877305E-01  0.10759016075181743E+00
  0.46331395814717638E+02  0.29940655389361911E-01  0.50698267539660495E-01
  0.15185387137146538E+02  0.23866516179315747E-01  0.14250858264538492E-01
  0.17799087045729166E+02  0.15249107186951614E-01  0.82780567960308842E-02
  0.29869762450420751E+02  0.38282404910076561E-02  0.53736310924423387E-02
  0.43205974699526834E+02  0.12810490981402026E-01  0.85545561834965162E-02
  0.45890953890659937E+02  0.44568591103918656E-01  0.53839366907712884E-01
  0.48186019508323412E+02  0.32899050564861233E-01  0.67051458421530805E-01
  0.15926329756424535E+02  0.19385148080097635E-01  0.10933434317912495E-01
  0.19569103306515757E+02  0.15111695759770838E-01  0.77463573046603323E-02
  0.32235173046054811E+02  0.58370474613818092E-02  0.91573689230251346E-02
  0.40978698628192021E+02  0.13815112313425772E-01  0.72892742105811767E-02