  0.00000000000000000E+00  0.00000000000000000E+00  0.00000000000000000E+00
  0.00000000000000000E+00  0.00000000000000000E+00  0.00000000000000000E+00
  0.00000000000000000E+00  0.00000000000000000E+00  0.00000000000000000E+00
  0.41099732667620366E+02  0.62149108961971497E-01  0.18423226791640618E+00
  0.41099732667620380E+02  0.62603401755117638E-01  0.18562578787401240E+00
  0.41099732667620401E+02  0.63365754326710599E-01  0.18796426547982856E+00
  0.27932333692487221E+01  0.98825699892452824E-03  0.40419614704095336E-03
  0.27932333692488878E+01  0.91223227806172611E-03  0.37271605496925526E-03
  0.66714437995523852E+01  0.83544258813904315E-02  0.31291134886706341E-02
  0.41071737831994234E+02  0.80511818598381343E-01  0.24536990385860058E+00
  0.41071737831994234E+02  0.77814143779846287E-01  0.23822564890494280E+00
  0.44116284831840410E+02  0.86784389513511351E-02  0.21273930992415362E-01
  0.51030361498594603E+01  0.35049256440209046E-02  0.13095504402209899E-02
  0.51030361498595544E+01  0.34221372541054815E-02  0.12788506639723129E-02
  0.12953500857821382E+02  0.30926212797922212E-01  0.78296397157111355E-02
  0.40961406016648027E+02  0.13199328717597195E+00  0.42879289277332860E+00
  0.40961406016648034E+02  0.13152421505929018E+00  0.42727767376283221E+00
  0.44014228665768997E+02  0.33410138539749618E-02  0.90037444706527071E-02
  0.65923130783661117E+01  0.82799336471968531E-02  0.28165941848563793E-02
  0.65923130783661845E+01  0.81665592899523541E-02  0.27834237561428798E-02
  0.18686707758693817E+02  0.33582882897577517E-02  0.96481096976622216E-03
  0.40826914471099499E+02  0.11324012754943287E+00  0.36702874344034259E+00
  0.40826914471099521E+02  0.11089583386763582E+00  0.35913909747018086E+00
  0.43258276310096477E+02  0.20178891126919701E-01  0.90253404559972564E-01
  0.72949177796101488E+01  0.18095947736596046E-01  0.58124315945333165E-02
  0.72949177796102056E+01  0.16564434885317454E-01  0.53243510899176338E-02
  0.23665628167605572E+02  0.10541205243583337E-01  0.17838928814687108E-02
  0.40847867253061168E+02  0.99169598372604126E-01  0.33306252211074150E+00
  0.40847867253061175E+02  0.96640872736434263E-01  0.32388334562875698E+00
  0.41688381923538486E+02  0.41605527774925544E-02  0.23041726832657639E-01
  0.75650810924244114E+01  0.30471785214098886E-01  0.96653263720268799E-02
  0.75650810924244452E+01  0.28467129154005313E-01  0.90298996834468053E-02
  0.27323415841027078E+02  0.31755623492215647E-01  0.17508561210054540E-02
  0.39873250341360709E+02  0.24978000284449999E-02  0.19565251438181115E-01
  0.41034414033619996E+02  0.78194055167412277E-01  0.28071232287684011E+00
  0.41034414033620010E+02  0.82170291838827139E-01  0.29376793130586260E+00
  0.76469346245982424E+01  0.46790191370036684E-01  0.14920656009536739E-01
  0.76469346245982530E+01  0.47625751766210200E-01  0.15192557763129225E-01
  0.28754351784299772E+02  0.36002924828522270E-01  0.12608652414683370E-02
  0.38996639081948508E+02  0.29996988082091700E-02  0.47494984983557087E-01
  0.41147667311100655E+02  0.25870054304492743E-01  0.89100248251933911E-01
  0.41147667311100676E+02  0.26029518658173687E-01  0.89690139269510707E-01
  0.40345302208223828E+01  0.14706959756618178E-02  0.58077475836426173E-03
  0.40345302208223899E+01  0.14649142067855855E-02  0.57836848013685736E-03
  0.66662003763578994E+01  0.82706613464253939E-02  0.31335423104876035E-02
  0.41097004918639549E+02  0.63669417963349281E-01  0.19559173814749434E+00
  0.41097004918639563E+02  0.64514413406151966E-01  0.19827739072903242E+00
  0.44075059318069776E+02  0.11719819458355766E-01  0.28253595753488851E-01
  0.57383487188169751E+01  0.49954621760611006E-02  0.18320714594045079E-02
  0.58645139289493313E+01  0.50856521269716203E-02  0.18333557595610335E-02
  0.11532845588551947E+02  0.30117834654298768E-01  0.81806582451921551E-02
  0.40968211760613684E+02  0.12497570441595786E+00  0.41520404901471708E+00
  0.41053027192444098E+02  0.76888889445742806E-01  0.25222752215638405E+00
  0.43988808941671437E+02  0.40509264492120710E-02  0.10708958065520866E-01
  0.71388055508678487E+01  0.13135674453983510E-01  0.42355609576877219E-02
  0.73459299754775058E+01  0.17528962826095177E-01  0.57358456837007486E-02
  0.16917195586847942E+02  0.22431698199464637E-02  0.71091996809161812E-03
  0.40770364321473394E+02  0.90083975374345121E-01  0.30464716614127768E+00
  0.40951455133081112E+02  0.13211184110291455E+00  0.44476006608810115E+00
  0.43442029417307054E+02  0.88203429442324337E-02  0.34948637476029644E-01
  0.77458657867160801E+01  0.23228456250689099E-01  0.70404250896414491E-02
  0.84300504455011698E+01  0.34536543724870139E-01  0.10185605861303085E-01
  0.21823680072524109E+02  0.65094473127896837E-02  0.14047363467438734E-02
  0.40580826378889505E+02  0.29103808985018187E-01  0.10312465925466201E+00
  0.40764226620950261E+02  0.83475454452914363E-01  0.29199098901986342E+00
  0.42429706552017663E+02  0.13489295482222127E-01  0.74929146364046226E-01
  0.80015552904715843E+01  0.30008294354690483E-01  0.90350341848561243E-02
  0.89777981837808074E+01  0.55410570121582688E-01  0.15265617813489500E-01
  0.25734401833369432E+02  0.23824362779831108E-01  0.23304617975627930E-02
  0.39591644895490191E+02  0.41989922258322048E-02  0.22757255947578336E-01
  0.40968863355774573E+02  0.11771378201421133E+00  0.42722785331777624E+00
  0.41757930754083361E+02  0.45502845725883144E-02  0.24130662854437698E-01
  0.81286731509100765E+01  0.31520081979452212E-01  0.95298305968862466E-02
  0.91845855581732696E+01  0.64414763065535757E-01  0.17090112942143566E-01
  0.27850840915070723E+02  0.27009363382697014E-01  0.10223277423775910E-02
  0.38591964187781088E+02  0.27680049334125071E-02  0.29815324546886068E-01
  0.41096462586506135E+02  0.58864308415746629E-01  0.20587463427218838E+00
  0.41712553209879061E+02  0.46784776821646177E-02  0.22989963519999341E-01
  0.80828645503217622E+01  0.31047327879094287E-01  0.94366832214356697E-02
  0.91288623725791798E+01  0.61338402417561166E-01  0.16292560522113388E-01
  0.27412959913614266E+02  0.31266692455596858E-01  0.14732068945883211E-02
  0.38780179517633869E+02  0.28739508588278306E-02  0.26017216428078388E-01
  0.40993784312625536E+02  0.10278067454443865E+00  0.36956817405453035E+00
  0.41805265304773449E+02  0.49231585173722036E-02  0.24171142215859715E-01
  0.78152697304724343E+01  0.25147972200929396E-01  0.77878228786053324E-02
  0.89373971561311603E+01  0.55228331715948556E-01  0.14965307321188242E-01
  0.24582522516901403E+02  0.13701722899323187E-01  0.18801162443684244E-02
  0.39823133926769607E+02  0.36146952490266329E-02  0.18205275345098321E-01
  0.40828625941431753E+02  0.10735240157131819E+00  0.36172140267693403E+00
  0.42074319278607653E+02  0.53697356639819281E-02  0.29355202665994670E-01
  0.71635225454342475E+01  0.13652298005416348E-01  0.44967322657535847E-02
  0.86181645482939579E+01  0.41299362363923758E-01  0.11642194156120198E-01
  0.20216489705030199E+02  0.44268199470778114E-02  0.11112718787028759E-02
  0.40567399992575368E+02  0.28571414453629894E-01  0.10096464250509900E+00
  0.40801208708672384E+02  0.11266051949896351E+00  0.36849781927912573E+00
  0.42866400879258904E+02  0.23472577531930130E-01  0.12162892670046697E+00
  0.58234541453867257E+01  0.50010017482696933E-02  0.18204415451617550E-02
  0.77558421165008671E+01  0.23204576468807653E-01  0.72664609068505866E-02
  0.15133807881510378E+02  0.17018870010846179E-02  0.58329416365711785E-03
  0.40892868308449302E+02  0.93345990731757311E-01  0.29898869488850077E+00
  0.41018114452142548E+02  0.91156155250280479E-01  0.31118712616660427E+00
  0.43595665397009270E+02  0.68031964303541040E-02  0.21410808315784614E-01
  0.39171564026263557E+01  0.13912288228823569E-02  0.54999968459473931E-03
  0.58600974605800031E+01  0.51221802366979473E-02  0.18779459822430360E-02
  0.10065725615994676E+02  0.54185096914880299E-01  0.15853722487061243E-01
  0.40991040517849399E+02  0.11309017759355143E+00  0.35837112787718212E+00
  0.41486010734530538E+02  0.60590444405921257E-02  0.19968529563248814E-01
  0.43679665052898017E+02  0.88507627743769114E-02  0.24252595344082722E-01
  0.71495876723873373E+01  0.13479893325078532E-01  0.43448602261309420E-02
  0.71495876723873852E+01  0.13453094769626472E-01  0.43368747119849555E-02
  0.13159291974692747E+02  0.33230265873482427E-01  0.85392851046786483E-02
  0.40823691972834574E+02  0.11095039849723454E+00  0.37066935672742646E+00
  0.40823691972834588E+02  0.11240047996518479E+00  0.37566044776677004E+00
  0.44091599202117749E+02  0.75781583190785559E-02  0.19121252553022355E-01
  0.80667468329086134E+01  0.31414881727789286E-01  0.90811236550690823E-02
  0.85368434922497123E+01  0.38133541442741989E-01  0.10663446350067897E-01
  0.16858633006524812E+02  0.21742994750279187E-02  0.72233900737111653E-03
  0.40622439010980692E+02  0.30919688290627398E-01  0.11493096032668347E+00
  0.40741887218842415E+02  0.64682060746459033E-01  0.22881703467589271E+00
  0.43661799419251111E+02  0.84847545987673124E-02  0.25311161715387848E-01
  0.85094513593976515E+01  0.38323352071326457E-01  0.10371102165948302E-01
  0.10101295438320081E+02  0.57931676021353198E-01  0.13275931700153993E-01
  0.20666988514262481E+02  0.48950050759881914E-02  0.12329587788053810E-02
  0.40432864700888686E+02  0.11209141979249550E-01  0.40701030082447513E-01
  0.40634636787983652E+02  0.32035976845623475E-01  0.12281917403310226E+00
  0.42816634371244007E+02  0.23422414895439739E-01  0.12363508881514280E+00
  0.87601490990607029E+01  0.47876340635245984E-01  0.12822472372034223E-01
  0.11290082812255390E+02  0.39692834175913461E-01  0.80745185293784588E-02
  0.24002384120469365E+02  0.11846840416336737E-01  0.18191112583318206E-02
  0.39221783249771818E+02  0.43689960026627910E-02  0.22557756811801076E-01
  0.40864316122321291E+02  0.83689539033628912E-01  0.31183898734476945E+00
  0.42458340101408957E+02  0.13202490135361740E-01  0.79622183537943952E-01
  0.89510375752227542E+01  0.54638253098607578E-01  0.14574107174846947E-01
  0.11877656373794954E+02  0.28035765841381673E-01  0.56969143925505780E-02
  0.26254023168264396E+02  0.37073879465839871E-01  0.26353838515219608E-02
  0.37984224276888938E+02  0.36853508661461058E-02  0.36898784790559552E-01
  0.40989689096904954E+02  0.10096596092997133E+00  0.38706838709181540E+00
  0.42495400547996525E+02  0.13549066421100599E-01  0.81278045665036727E-01
  0.89588177082989393E+01  0.54624822609702965E-01  0.14643696543190997E-01
  0.11874540250023525E+02  0.28187258098112084E-01  0.56675254385821269E-02
  0.26623716343427738E+02  0.40988504611045418E-01  0.23141827670987106E-02
  0.37660069693518651E+02  0.28683793756778017E-02  0.36480552331872682E-01
  0.40862574847297424E+02  0.85338534881431186E-01  0.31160511684299574E+00
  0.42677464099433664E+02  0.17815991981350778E-01  0.10577899071379838E+00
  0.87475114467406545E+01  0.46756393328797476E-01  0.12970684532894858E-01
  0.11550219498373025E+02  0.33221129829890388E-01  0.65296945559100809E-02
  0.24841212061408218E+02  0.15303079354429615E-01  0.17265267173810802E-02
  0.38277872074658966E+02  0.37753462963304083E-02  0.32802323623186080E-01
  0.40692139703145287E+02  0.46394063313881864E-01  0.16913540526725981E+00
  0.42918007295419841E+02  0.21585092519017208E-01  0.12928789197732082E+00
  0.82607089249344892E+01  0.32466736368457129E-01  0.96979737324412660E-02
  0.11234305370043948E+02  0.41653992968636110E-01  0.81791874782245165E-02
  0.21528210223872065E+02  0.62423901005691489E-02  0.13111214464060327E-02
  0.39352474587463178E+02  0.44726178791317838E-02  0.23143275383430667E-01
  0.40683949501204310E+02  0.45179625847116954E-01  0.15861925129595497E+00
  0.43126453186322522E+02  0.28640438094961435E-01  0.16441251019546652E+00
  0.72386937015771950E+01  0.15712576112345469E-01  0.51844907009335160E-02
  0.10276265232135017E+02  0.50964874646645959E-01  0.11583135889844545E-01
  0.17930435894850191E+02  0.28610697843057778E-02  0.84788804781461835E-03
  0.40479133095548121E+02  0.16185568085295969E-01  0.59316272493905128E-01
  0.40792780846200714E+02  0.10907084236390172E+00  0.35564061076848774E+00
  0.43252561579358726E+02  0.19655924915801874E-01  0.96038986459280232E-01
  0.86739581480188974E+01  0.44898851495983327E-01  0.11573241895147820E-01
  0.86739581480189205E+01  0.44922803311269861E-01  0.11570505162955760E-01
  0.19371093498807170E+02  0.36266988774450869E-02  0.10913920838829230E-02
  0.40479528400683336E+02  0.15527306117704151E-01  0.62522621884816554E-01
  0.40479528400683350E+02  0.15177515053983862E-01  0.61226609966291361E-01
  0.43547714982112289E+02  0.62863114315325087E-02  0.20106882687722961E-01
  0.89519158737217008E+01  0.56368561218827704E-01  0.13694159655954692E-01
  0.96696085114774579E+01  0.64278592882202293E-01  0.14043149302242538E-01
  0.22275807924549728E+02  0.67889156855037878E-02  0.16114080911922856E-02
  0.40386759041771377E+02  0.87961414798418507E-02  0.35495423803012009E-01
  0.40548627593721250E+02  0.23357599640727394E-01  0.97670184880322281E-01
  0.42713901952167838E+02  0.22176776360085564E-01  0.11037188730548772E+00
  0.91723154548743189E+01  0.66133376122937654E-01  0.15648740627668495E-01
  0.11418479930641048E+02  0.37153574149742845E-01  0.68214651674942117E-02
  0.24646058364221915E+02  0.13325358977441467E-01  0.21105947445938071E-02
  0.39232647297437204E+02  0.44055993933978946E-02  0.22569387277762771E-01
  0.40803091415972837E+02  0.99974292894083730E-01  0.39518147751941723E+00
  0.42440677353851726E+02  0.12799325552072404E-01  0.78603297354739060E-01
  0.93838616909334363E+01  0.10275835840163268E+00  0.23973978661853215E-01
  0.12936066313006634E+02  0.35325418942946205E-01  0.58392116154608832E-02
  0.26336100670991247E+02  0.39131114661368684E-01  0.29933262376775792E-02
  0.37555987927792280E+02  0.29695881006013888E-02  0.33811465121299115E-01
  0.40924690898594754E+02  0.11925929785454972E+00  0.48819136613261660E+00
  0.42742833306183243E+02  0.19925687589844046E-01  0.12682179540405264E+00
  0.94253065159997824E+01  0.12002975211141648E+00  0.27955328634480338E-01
  0.13500659758366146E+02  0.34512796538987894E-01  0.53942964030376083E-02
  0.26912760157959443E+02  0.38832659702340615E-01  0.16568926834935841E-02
  0.36701182082042919E+02  0.15660070785312469E-02  0.39200191895193130E-01
  0.40766877390212521E+02  0.79194160833775840E-01  0.31097930327331375E+00
  0.43067985368789074E+02  0.24900003511918838E-01  0.16400143622736874E+00
  0.92892331587678747E+01  0.95562769869033351E-01  0.22806073261358164E-01
  0.13206259682696080E+02  0.39152794653224715E-01  0.61252048803005048E-02
  0.25807290118062848E+02  0.26935426337252655E-01  0.18512558003824838E-02
  0.37007291761083913E+02  0.21483604761060194E-02  0.39261039344023807E-01
  0.40559681551694467E+02  0.24954059344430225E-01  0.99961099783681395E-01
  0.43341564406967251E+02  0.10489828540831088E-01  0.63684141407392342E-01
  0.89882124408746584E+01  0.55237683121107127E-01  0.14624763895815563E-01
  0.12615309022321995E+02  0.30852290192402116E-01  0.52278467218925973E-02
  0.23522195763445914E+02  0.10578391890190948E-01  0.15234573986450024E-02
  0.37983983981784220E+02  0.39026461261704591E-02  0.36023748991445524E-01
  0.40545165537460647E+02  0.24441346061350479E-01  0.93410422577077601E-01
  0.43433217493383125E+02  0.75814170767831224E-02  0.40604230182600391E-01
  0.91112792443191086E+01  0.64332777617663497E-01  0.14617429909629288E-01
  0.91112792443191317E+01  0.64263967780467557E-01  0.14620825881140699E-01
  0.25047447495664098E+02  0.14606480500457516E-01  0.23920613101265833E-02
  0.40635923831498907E+02  0.30115577640578570E-01  0.12898568503679697E+00
  0.40635923831498928E+02  0.30914793878294256E-01  0.13197483168687277E+00
  0.41759763749990363E+02  0.49904774065014420E-02  0.23942805779441328E-01
  0.92504738385741980E+01  0.12031974475654020E+00  0.26246345847150059E-01
  0.99689952308690621E+01  0.65180144787468267E-01  0.13307266825935141E-01
  0.27288095198152352E+02  0.29711895377152794E-01  0.22978378205320850E-02
  0.39520489630120686E+02  0.43645037237961875E-02  0.23420961986558627E-01
  0.40864991281456703E+02  0.77240250088283141E-01  0.32314838554168190E+00
  0.41633960356189625E+02  0.38033045055412902E-02  0.21832056124335322E-01
  0.94178534669663083E+01  0.12103876769901933E+00  0.26797146022362092E-01
  0.11777062256669009E+02  0.32426874166007889E-01  0.56367655000409984E-02
  0.28582676344608569E+02  0.15697190068973868E-01  0.53391404481447410E-03
  0.37419341957019995E+02  0.24194801220181203E-02  0.34084972367670184E-01
  0.40976427255853160E+02  0.10065381308755017E+00  0.43310643876181409E+00
  0.42319007113861012E+02  0.94250958827002372E-02  0.59521956688649305E-01
  0.94865825839612334E+01  0.15257592698744687E+00  0.33460682494536188E-01
  0.13332488982502207E+02  0.38408468856904798E-01  0.57743489410868841E-02
  0.28787180850771527E+02  0.15940589811991753E-01  0.19642439364149432E-03
  0.35991326778253097E+02  0.51952567505082173E-03  0.43914892054392834E-01
  0.40827129384282536E+02  0.95326365529819129E-01  0.38801609183788738E+00
  0.42904650702951173E+02  0.19626275023767861E-01  0.13258496976141743E+00
  0.94446935258002149E+01  0.11510976499801039E+00  0.25931474621322229E-01
  0.13773064508895963E+02  0.49030298468698150E-01  0.69245594901023626E-02
  0.27610897323036692E+02  0.32186384728925273E-01  0.69642902535183482E-03
  0.36034688544035781E+02  0.64045242710796544E-03  0.44452708483893107E-01
  0.40606312759090692E+02  0.26920569150368643E-01  0.11270585161430284E+00
  0.43276676627345495E+02  0.14114201081325413E-01  0.91087040620700180E-01
  0.92545724149971633E+01  0.12858843870131703E+00  0.27779327174573248E-01
  0.92545724149972006E+01  0.12902526424822697E+00  0.27862280098028474E-01
  0.29800860791952726E+02  0.85349500634926169E-02  0.27357318848455001E-03
  0.39089031573017955E+02  0.29259194493465664E-02  0.24559730327762402E-01
  0.41030158276965295E+02  0.72666427636378858E-01  0.32265084570141972E+00
  0.41030158276965302E+02  0.69899266622345593E-01  0.31152249745735372E+00
  0.93186550581752456E+01  0.10198736339785718E+00  0.22428242264222922E-01
  0.10051626835705630E+02  0.61992156009270272E-01  0.12629819850994810E-01
  0.31153725138393071E+02  0.57149950037505056E-02  0.44667882469274824E-04
  0.37349095762923355E+02  0.12831483060666527E-02  0.38516048335558266E-01
  0.41118573462710430E+02  0.30746071397979149E-01  0.13258782236822209E+00
  0.41571349417464972E+02  0.37544710415049068E-02  0.20415845837269617E-01
  0.94158695816282894E+01  0.12093068816693585E+00  0.26478928266264991E-01
  0.11845624043685737E+02  0.29164578685981147E-01  0.51257707253658767E-02
  0.30734672772211397E+02  0.69485616284950666E-02  0.45831710402070983E-05
  0.36054112484771515E+02  0.10765920345594291E-03  0.49091064384792917E-01
  0.41009338807522631E+02  0.80800932173547585E-01  0.35446608757375214E+00
  0.42322132021028736E+02  0.94763397086975211E-02  0.60136318128867348E-01
  0.92649847966119800E+01  0.13257248653029194E+00  0.28814887417455453E-01
  0.92649847966120120E+01  0.13378317735792633E+00  0.29045197514640211E-01
  0.32349498402940625E+02  0.23986628834840078E-01  0.52891731814528614E-34
  0.37205764589577257E+02  0.16033666804178783E-33  0.68870250335945016E-01
  0.41199366162526182E+02  0.11719052716502117E-01  0.52809228832297869E-01
  0.41199366162526189E+02  0.11800686703479502E-01  0.53191640481755703E-01
  0.67217787776138636E+01  0.88956001476493095E-02  0.30151398512628194E-02
  0.83173476619290128E+01  0.33009639592727930E-01  0.97179718188882633E-02
  0.14802729451505801E+02  0.18774523469195462E-02  0.63884251639111436E-03
  0.40807376150381089E+02  0.11445041084203363E+00  0.37734924866220920E+00
  0.41006098498097614E+02  0.98547083306032526E-01  0.34304605230062368E+00
  0.43651146547249034E+02  0.82318409912161290E-02  0.24543519871704684E-01
  0.78856632372339535E+01  0.27483601966888083E-01  0.84118773253139077E-02
  0.97229902730457507E+01  0.64745475193073998E-01  0.15412947404842023E-01
  0.18877291350795431E+02  0.35215843125327578E-02  0.99722744639552325E-03
  0.40425544829675843E+02  0.11253769741841458E-01  0.40719514529086683E-01
  0.40841818051904610E+02  0.10416937298167754E+00  0.34553676542690653E+00
  0.43105759315868347E+02  0.31307922356925116E-01  0.16110363979811429E+00
  0.85190249204587172E+01  0.37548493403707035E-01  0.10613451255015114E-01
  0.10496292915902803E+02  0.43556807518790076E-01  0.96596731911469547E-02
  0.22845509088184194E+02  0.82490589533062222E-02  0.15008168730693714E-02
  0.39523097180126662E+02  0.50805490680566464E-02  0.22943949666684581E-01
  0.40797412462900986E+02  0.10701351140176277E+00  0.37125366001775162E+00
  0.42658151748802219E+02  0.17221247466940544E-01  0.97721641100787349E-01
  0.88110596040669211E+01  0.50416931723128146E-01  0.13827250670571370E-01
  0.10975709439888355E+02  0.42466774414900585E-01  0.89944952815552322E-02
  0.25852196120710573E+02  0.26603526239142177E-01  0.22411854682729921E-02
  0.38405183754239005E+02  0.36040538747030134E-02  0.31088224790954085E-01
  0.40925347056331930E+02  0.12530214588481584E+00  0.46774046449439299E+00
  0.42431070038995458E+02  0.13680022436555660E-01  0.78655786751588505E-01
  0.89222262019018341E+01  0.54956865860352755E-01  0.14913351113459485E-01
  0.11148412961414929E+02  0.42438825465479182E-01  0.89305830196689650E-02
  0.27009557967508762E+02  0.37610871396369504E-01  0.17980499458463328E-02
  0.37865856581580417E+02  0.32446220673539362E-02  0.38330054541803091E-01
  0.41008910172043315E+02  0.92408882442677837E-01  0.34593805362465663E+00
  0.42380948113649325E+02  0.12404814569547187E-01  0.70163475338498649E-01
  0.88638123439416372E+01  0.53939311683949304E-01  0.14113721916322449E-01
  0.96103376368172864E+01  0.61541209179583563E-01  0.14007697055941702E-01
  0.19764279906400880E+02  0.38584393253783492E-02  0.10950100886682826E-02
  0.40303321252457621E+02  0.82257493433167007E-02  0.32459397965859428E-01
  0.40743970182562641E+02  0.65836728520268187E-01  0.23814565709383895E+00
  0.43143679950133524E+02  0.31428000111577731E-01  0.15521334542967521E+00
  0.93670355340885028E+01  0.94989053185129554E-01  0.22256021477226561E-01
  0.11021428536055952E+02  0.44016249597967468E-01  0.85750660428684372E-02
  0.22620014277849592E+02  0.75697078707951298E-02  0.15648578730398436E-02
  0.39471768953720321E+02  0.50670095016958905E-02  0.23210896261724848E-01
  0.40823545661907787E+02  0.10567573385821295E+00  0.38725199421484680E+00
  0.42730863235237720E+02  0.20656048916588298E-01  0.12029082937095797E+00
  0.96112329751847483E+01  0.61332512758271847E-01  0.14146677165655165E-01
  0.12348811549965404E+02  0.29433899247528816E-01  0.54526727061286603E-02
  0.25038833345390724E+02  0.16056342888831985E-01  0.18796925609912540E-02
  0.38070472971205220E+02  0.42127826103025004E-02  0.34983273526179512E-01
  0.40937099574478246E+02  0.12213272029658644E+00  0.48663235940154870E+00
  0.42752800828816603E+02  0.20180762616088574E-01  0.12734620917905251E+00
  0.97589850481730274E+01  0.66379257913030579E-01  0.15150130553493631E-01
  0.12989806471483703E+02  0.35640723137842688E-01  0.62277996812623807E-02
  0.26423723791805550E+02  0.43005270531537049E-01  0.24937778681876580E-02
  0.37078068854002922E+02  0.22585228448246354E-02  0.38361935295580289E-01
  0.40939609737261868E+02  0.12128228990181732E+00  0.48590360184312165E+00
  0.42882534209204778E+02  0.20207375396900734E-01  0.13069916650007551E+00
  0.97020941450934846E+01  0.64693330321332454E-01  0.14911135342776997E-01
  0.12840288217725991E+02  0.33153892318509279E-01  0.58266621103039411E-02
  0.26052287390205695E+02  0.31738713568565280E-01  0.20861576557240197E-02
  0.37140358724225443E+02  0.23219784944603114E-02  0.37482233449725441E-01
  0.40815431780645831E+02  0.10431245624678522E+00  0.39336502845417842E+00
  0.43035259633978292E+02  0.23589469405443216E-01  0.15247923332744165E+00
  0.94558265383383571E+01  0.10707350023839550E+00  0.25658958309857451E-01
  0.12251025121670173E+02  0.29525791306128465E-01  0.53774114676881793E-02
  0.24005422452428345E+02  0.12206654529983599E-01  0.16646992166551248E-02
  0.38049311039746463E+02  0.40076915000945212E-02  0.35269764803461383E-01
  0.40725077588790562E+02  0.56595668201207969E-01  0.21241662311720516E+00
  0.43156931154643637E+02  0.27678103245615301E-01  0.17517502202273100E+00
  0.88900431296837166E+01  0.53118679492243422E-01  0.14476959950130765E-01
  0.11418154077456233E+02  0.37462570675362995E-01  0.71320444529269656E-02
  0.21245262614619929E+02  0.58089405256239622E-02  0.12977571990380177E-02
  0.39323953647134125E+02  0.44411322551174710E-02  0.23056285554609784E-01
  0.40756913827598098E+02  0.77675935793758200E-01  0.27354897104914955E+00
  0.43123133553796045E+02  0.28429046020065064E-01  0.16587904088440625E+00
  0.97084749562566550E+01  0.66477822370549985E-01  0.14015253688421235E-01
  0.99987072237106869E+01  0.64846751946786810E-01  0.13684185140608787E-01
  0.24723703339491706E+02  0.13362519125518588E-01  0.22121110187891227E-02
  0.39681349383669257E+02  0.45626040866096652E-02  0.20975571063101179E-01
  0.40820715567119407E+02  0.10126687350121370E+00  0.39939376853994946E+00
  0.42233422538179774E+02  0.77729974945325610E-02  0.44531881653467380E-01
  0.99672278464913671E+01  0.67041552979049901E-01  0.13898096976767915E-01
  0.11699019681393672E+02  0.30362393346619505E-01  0.56114664827571058E-02
  0.26520515727447648E+02  0.39196595517455517E-01  0.33418833651969607E-02
  0.38017116553061769E+02  0.42058375384093566E-02  0.35488999944065923E-01
  0.40987107287546927E+02  0.97521250838662810E-01  0.41129325238102199E+00
  0.42487124022676511E+02  0.12740213307973366E-01  0.83437289428801367E-01
  0.10109038523663409E+02  0.61319904936597176E-01  0.12699761030612723E-01
  0.13295268642211587E+02  0.38438006957241956E-01  0.61288022003644117E-02
  0.27521937868790953E+02  0.31421429047062924E-01  0.10952175635885390E-02
  0.36444498785746461E+02  0.12632919321974251E-02  0.38597153776120927E-01
  0.40953173596993032E+02  0.11305314687272230E+00  0.48307087297972751E+00
  0.42899288009577077E+02  0.19601628809378793E-01  0.13265436180241144E+00
  0.10100866354898844E+02  0.61693140106218403E-01  0.12842082867844251E-01
  0.13792669311155056E+02  0.46629153241658061E-01  0.69998430001543110E-02
  0.27303444157659097E+02  0.36243177851134005E-01  0.96389042351951125E-03
  0.36017698205505972E+02  0.74641457986278749E-03  0.43131279097525829E-01
  0.40781440825916192E+02  0.87043787662359401E-01  0.35419646088202006E+00
  0.43197173646732310E+02  0.24477021126250283E-01  0.16702087641758537E+00
  0.99398382702121406E+01  0.67246145636010543E-01  0.14577693570737729E-01
  0.13289528303639912E+02  0.38720733885546393E-01  0.61125944352109019E-02
  0.25774754945156843E+02  0.26417808507902065E-01  0.18170677524546180E-02
  0.36782575148292921E+02  0.19120495292892919E-02  0.38668801337327148E-01
  0.40682325436544701E+02  0.40960568527621352E-01  0.16440629620292910E+00
  0.43328557913096837E+02  0.10906101089302758E-01  0.68398225293081857E-01
  0.98457755982769761E+01  0.69117011010664364E-01  0.13976745524040145E-01
  0.10310211217616162E+02  0.51134562632284428E-01  0.10550431563509551E-01
  0.29113790669318625E+02  0.12198312895107080E-01  0.38230382781910137E-03
  0.37980312936837898E+02  0.36026066652152270E-02  0.37654374799198830E-01
  0.41067767830697605E+02  0.64125047567485743E-01  0.27563035346291642E+00
  0.41853069538671917E+02  0.43560012844095697E-02  0.25823294569123380E-01
  0.10085000125207047E+02  0.63170446571256450E-01  0.12663181956656082E-01
  0.12038377857899755E+02  0.28930699842285468E-01  0.52198842408771109E-02
  0.29753332902754995E+02  0.10405182078468697E-01  0.10453018171866178E-03
  0.36190231865270292E+02  0.65116251763522098E-03  0.45416777233814307E-01
  0.41064715407094440E+02  0.62505774792158630E-01  0.27279103131577004E+00
  0.42452637992549839E+02  0.12294393511547479E-01  0.81585640332537956E-01
  0.10168796384473234E+02  0.59133892609875983E-01  0.11883856304708493E-01
  0.13548538896888189E+02  0.34259523095345606E-01  0.52817509430140479E-02
  0.28979853079210415E+02  0.15622024535400415E-01  0.61629875324528059E-04
  0.35434878816148441E+02  0.78207382865208333E-04  0.34741810248763744E-01
  0.40899059382388288E+02  0.80338352711363151E-01  0.34558820218637071E+00
  0.42966989915306094E+02  0.20452635517020392E-01  0.14069033535702230E+00
  0.98114361822594809E+01  0.69024647882559451E-01  0.14108167433901024E-01
  0.10428764518200282E+02  0.47009082345283823E-01  0.95571879634388218E-02
  0.31464425371549655E+02  0.53454076726703941E-02  0.95535381885264366E-06
  0.36446992315473004E+02  0.13272693784192890E-03  0.45235505309652889E-01
  0.41167662821357062E+02  0.15354314799938540E-01  0.69165809488061766E-01
  0.41847978102515420E+02  0.44573230455911949E-02  0.25707283632174980E-01
  0.10380315310428090E+02  0.48672415570084004E-01  0.98685746753680043E-02
  0.11902608427770474E+02  0.28889079460938921E-01  0.54949860166789467E-02
  0.24594783281068072E+02  0.13784521983671635E-01  0.18734131067983989E-02
  0.38056561566432372E+02  0.43839241889954512E-02  0.34906814299089733E-01
  0.40919218805041908E+02  0.11171862266475431E+00  0.44912341270935274E+00
  0.42885458449877142E+02  0.20002016140856314E-01  0.13154973313446255E+00
  0.10721626627788371E+02  0.44255610425184194E-01  0.83791661371618795E-02
  0.13169377190198489E+02  0.38246610732599773E-01  0.65770438459463280E-02
  0.26275723953563169E+02  0.39592724249490244E-01  0.23875364032101744E-02
  0.36640454244626142E+02  0.17368515984569769E-02  0.37479875951019946E-01